 Gaussian 09, Revision E.01,
 Gaussian 09:  ES64L-G09RevE.01 30-Nov-2015

 ---------------------------------------------------------------
 # HF/6-31G* SCF=Tight Pop=MK IOp(6/33=2,6/41=10,6/42=17) Nosymm
 ---------------------------------------------------------------

 --------------
 UNK_C7DFF1.pdb
 --------------
 Symbolic Z-matrix:
 Charge =  0 Multiplicity = 1

                          Input orientation:
 ---------------------------------------------------------------------
 Center     Atomic      Atomic             Coordinates (Angstroms)
 Number     Number       Type             X           Y           Z
 ---------------------------------------------------------------------
      1          6           0        1.000000    1.000000    0.000000
      2          6           0       -0.505000    1.000000    0.000000
      3          8           0       -1.147000    1.000000    1.049000
      4          6           0       -1.193000    0.998000   -1.338000
      5          1           0        1.368000    1.000000    1.030000
      6          1           0        1.365000    1.897000   -0.506000
      7          1           0        1.365000    0.103000   -0.506000
      8          1           0       -0.456000    0.997000   -2.146000
      9          1           0       -1.809000    1.896000   -1.427000
     10          1           0       -1.809000    0.100000   -1.425000
 ---------------------------------------------------------------------

 SCF Done:  E(RHF) =  -191.957633219     A.U. after   12 cycles

 Alpha  occ. eigenvalues --  -20.54830 -11.33396 -11.23609 -11.23549  -1.36981
 Alpha  occ. eigenvalues --   -1.04441  -0.96838  -0.73788  -0.63600  -0.63233
 Alpha  occ. eigenvalues --   -0.62476  -0.57139  -0.55614  -0.53087  -0.47394
 Alpha  occ. eigenvalues --   -0.40948
 Alpha virt. eigenvalues --    0.15623   0.22672   0.28189   0.29370   0.29801
 Alpha virt. eigenvalues --    0.30790   0.34994   0.37764   0.46305   0.48968
 Alpha virt. eigenvalues --    0.72263   0.75013   0.80044   0.80072   0.83900

 Mulliken charges:
               1
     1  C   -0.577126
     2  C    0.524375
     3  O   -0.542489
     4  C   -0.570363
     5  H    0.208286
     6  H    0.185602
     7  H    0.185614
     8  H    0.170251
     9  H    0.207866
    10  H    0.207983
 Sum of Mulliken charges =   0.00000

 Dipole moment (field-independent basis, Debye):
    X=              1.6480    Y=             -0.0010    Z=             -2.8539  Tot=              3.2956
 Quadrupole moment (field-independent basis, Debye-Ang):
   XX=            -26.5565   YY=            -23.8838   ZZ=            -27.2546
   XY=              1.6492   XZ=              3.7136   YZ=             -2.8535

 ESP charges:
               1
     1  C   -0.525784
     2  C    0.821796
     3  O   -0.598648
     4  C   -0.543520
     5  H    0.139047
     6  H    0.138016
     7  H    0.138125
     8  H    0.120953
     9  H    0.154897
    10  H    0.155118
 Sum of ESP charges =  -0.00000

 Normal termination of Gaussian 09 at Thu Jun  6 20:23:27 2024.
